 Gaussian 09, Revision A.02,
 Gaussian 09:  EM64L-G09RevA.02 11-Jun-2009

 ----------------------------------------------------------------------
 #HF/6-31G* SCF=tight Test Pop=MK iop(6/33=2) iop(6/42=6) opt # iop(6/5
 0=1)
 ----------------------------------------------------------------------

 ---------------------
 remark line goes here
 ---------------------
 Symbolic Z-matrix:
 Charge =  0 Multiplicity = 1

 SCF Done:  E(RHF) =  -416.470733807     A.U. after   14 cycles
 SCF Done:  E(RHF) =  -416.483749246     A.U. after   13 cycles
 SCF Done:  E(RHF) =  -416.484617848     A.U. after   13 cycles
 SCF Done:  E(RHF) =  -416.485128628     A.U. after   15 cycles
 SCF Done:  E(RHF) =  -416.485872664     A.U. after   16 cycles
 SCF Done:  E(RHF) =  -416.486435950     A.U. after   13 cycles
 SCF Done:  E(RHF) =  -416.486910599     A.U. after   13 cycles
 SCF Done:  E(RHF) =  -416.486986047     A.U. after   16 cycles
 SCF Done:  E(RHF) =  -416.487018821     A.U. after   12 cycles
 SCF Done:  E(RHF) =  -416.487041290     A.U. after   12 cycles
 SCF Done:  E(RHF) =  -416.487052339     A.U. after   11 cycles
 SCF Done:  E(RHF) =  -416.487052936     A.U. after    9 cycles
 SCF Done:  E(RHF) =  -416.487053006     A.U. after    8 cycles
 Optimization completed.
    -- Stationary point found.

                         Standard orientation:
 ---------------------------------------------------------------------
 Center     Atomic      Atomic             Coordinates (Angstroms)
 Number     Number       Type             X           Y           Z
 ---------------------------------------------------------------------
      1          6           0       -1.320387   -1.222697    0.375884
      2          6           0       -2.548154   -0.617824    0.546419
      3          6           0       -2.750489    0.697880    0.152005
      4          6           0       -1.697756    1.392607   -0.410124
      5          6           0       -0.455373    0.797368   -0.581050
      6          6           0       -0.255917   -0.521230   -0.191963
      7          7           0        0.957587   -1.199418   -0.381220
      8          6           0        2.166509   -0.513297   -0.729811
      9          6           0        2.705121    0.396182    0.319604
     10          7           0        3.129805    1.076230    1.122900
     11          1           0       -1.179611   -2.247469    0.673929
     12          1           0       -3.353376   -1.177873    0.987724
     13          1           0       -3.707722    1.167506    0.285393
     14          1           0       -1.830023    2.415023   -0.716363
     15          1           0        0.341806    1.376610   -1.006631
     16          1           0        1.100895   -1.935535    0.275005
     17          1           0        2.929377   -1.250612   -0.941628
     18          1           0        2.025594    0.060728   -1.634985
 ---------------------------------------------------------------------

 The electronic state is 1-A.
 Alpha  occ. eigenvalues --  -15.59288 -15.57493 -11.32136 -11.28601 -11.27223
 Alpha  occ. eigenvalues --  -11.23834 -11.23781 -11.23044 -11.23041 -11.22399
 Alpha  occ. eigenvalues --   -1.27398  -1.22561  -1.14729  -1.03716  -1.02008
 Alpha  occ. eigenvalues --   -0.96764  -0.84028  -0.82068  -0.73455  -0.72785
 Alpha  occ. eigenvalues --   -0.68698  -0.66160  -0.63463  -0.60378  -0.59157
 Alpha  occ. eigenvalues --   -0.58517  -0.56157  -0.53109  -0.51389  -0.49709
 Alpha  occ. eigenvalues --   -0.47399  -0.46708  -0.44643  -0.34090  -0.30323
 Alpha virt. eigenvalues --    0.13812   0.15482   0.19159   0.21161   0.22614
 Alpha virt. eigenvalues --    0.24070   0.24928   0.29920   0.30098   0.32172
 Alpha virt. eigenvalues --    0.34012   0.35686   0.37365   0.37736   0.43044

 Mulliken atomic charges:
              1
     1  C   -0.257016
     2  C   -0.180774
     3  C   -0.224999
     4  C   -0.180866
     5  C   -0.255624
     6  C    0.341974
     7  N   -0.777069
     8  C   -0.174438
     9  C    0.293646
    10  N   -0.448658
    11  H    0.197546
    12  H    0.204452
    13  H    0.200916
    14  H    0.205585
    15  H    0.203387
    16  H    0.375940
    17  H    0.239839
    18  H    0.236159
 Sum of Mulliken atomic charges =   0.00000

 Dipole moment (field-independent basis, Debye):
    X=             -1.0033    Y=             -2.3799    Z=             -1.9205  Tot=              3.2185
 Quadrupole moment (field-independent basis, Debye-Ang):
   XX=            -60.1687   YY=            -55.3175   ZZ=            -62.6448
   XY=             -8.6791   XZ=            -10.0278   YZ=             -6.8605

 Normal termination of Gaussian 09 at Fri Sep 16 13:10:39 2022.
